<?xml version="1.0"?>
<VTKFile type="UnstructuredGrid"  version="0.1"  >
<UnstructuredGrid>
<Piece  NumberOfPoints="25551" NumberOfCells="50000">
<Points>
<DataArray  type="Float64"  NumberOfComponents="3"  format="ascii">0 0 0  0 1 0  10 1 0  10 0 0  0 0.9799999999999167 0  0 0.9599999999998334 0  0 0.9399999999997501 0  0 0.9199999999996669 0  0 0.8999999999995836 0  0 0.8799999999995082 0  0 0.8599999999995835 0  0 0.8399999999997224 0  0 0.8199999999998612 0  0 0.8 0  0 0.7800000000001388 0  0 0.7600000000002776 0  0 0.7400000000004163 0  0 0.7200000000005551 0  0 0.7000000000006938 0  0 0.6800000000008326 0  0 0.6600000000009714 0  0 0.64000000000111 0  0 0.6200000000012488 0  0 0.6000000000013874 0  0 0.5800000000015262 0  0 0.5600000000016649 0  0 0.5400000000018037 0  0 0.5200000000019424 0  0 0.5000000000020595 0  0 0.4800000000019978 0  0 0.4600000000019147 0  0 0.4400000000018314 0  0 0.4200000000017482 0  0 0.4000000000016649 0  0 0.3800000000015817 0  0 0.3600000000014983 0  0 0.3400000000014151 0  0 0.3200000000013319 0  0 0.3000000000012486 0  0 0.2800000000011654 0  0 0.2600000000010821 0  0 0.240000000000999 0  0 0.2200000000009157 0  0 0.2000000000008325 0  0 0.1800000000007492 0  0 0.1600000000006659 0  0 0.1400000000005828 0  0 0.1200000000004994 0  0 0.1000000000004162 0  0 0.08000000000033292 0  0 0.06000000000024974 0  0 0.04000000000016646 0  0 0.02000000000008317 0  0.01999999999998493 0 0  0.03999999999996986 0 0  0.05999999999995478 0 0  0.07999999999993983 0 0  0.09999999999992584 0 0  0.1199999999999119 0 0  0.1399999999998979 0 0  0.159999999999884 0 0  0.17999999999987 0 0  0.199999999999856 0 0  0.219999999999842 0 0  0.2399999999998273 0 0  0.2599999999998105 0 0  0.2799999999997938 0 0  0.2999999999997771 0 0  0.3199999999997583 0 0  0.339999999999736 0 0  0.3599999999997136 0 0  0.3799999999996914 0 0  0.3999999999996677 0 0  0.4199999999996426 0 0  0.4399999999996176 0 0  0.4599999999995925 0 0  0.4799999999995705 0 0  0.4999999999995511 0 0  0.5199999999995315 0 0  0.5399999999995121 0 0  0.5599999999994962 0 0  0.5799999999994822 0 0  0.5999999999994682 0 0  0.6199999999994542 0 0  0.6399999999994403 0 0  0.6599999999994264 0 0  0.6799999999994123 0 0  0.6999999999993983 0 0  0.7199999999993844 0 0  0.7399999999993703 0 0  0.7599999999993565 0 0  0.7799999999993424 0 0  0.7999999999993285 0 0  0.8199999999993145 0 0  0.8399999999993004 0 0  0.8599999999992867 0 0  0.8799999999992726 0 0  0.8999999999992587 0 0  0.9199999999992446 0 0  0.9399999999992306 0 0  0.9599999999992168 0 0  0.9799999999992027 0 0  0.9999999999991889 0 0  1.019999999999175 0 0  1.039999999999161 0 0  1.059999999999147 0 0  1.079999999999133 0 0  1.099999999999119 0 0  1.119999999999105 0 0  1.139999999999091 0 0  1.159999999999077 0 0  1.179999999999059 0 0  1.199999999999033 0 0  1.219999999999009 0 0  1.239999999998983 0 0  1.259999999998947 0 0  1.2799999999989 0 0  1.299999999998853 0 0  1.319999999998805 0 0  1.339999999998752 0 0  1.359999999998693 0 0  1.379999999998635 0 0  1.399999999998577 0 0  1.419999999998518 0 0  1.43999999999846 0 0  1.459999999998401 0 0  1.479999999998343 0 0  1.499999999998285 0 0  1.519999999998226 0 0  1.539999999998168 0 0  1.559999999998109 0 0  1.579999999998051 0 0  1.599999999997992 0 0  1.619999999997934 0 0  1.639999999997876 0 0  1.659999999997817 0 0  1.679999999997759 0 0  1.6999999999977 0 0  1.719999999997642 0 0  1.739999999997583 0 0  1.759999999997525 0 0  1.779999999997467 0 0  1.799999999997408 0 0  1.81999999999735 0 0  1.839999999997291 0 0  1.859999999997233 0 0  1.879999999997175 0 0  1.899999999997116 0 0  1.919999999997058 0 0  1.939999999996999 0 0  1.959999999996941 0 0  1.979999999996882 0 0  1.999999999996824 0 0  2.019999999996766 0 0  2.039999999996707 0 0  2.059999999996649 0 0  2.07999999999659 0 0  2.099999999996532 0 0  2.119999999996474 0 0  2.139999999996415 0 0  2.159999999996357 0 0  2.179999999996299 0 0  2.19999999999624 0 0  2.219999999996181 0 0  2.239999999996123 0 0  2.259999999996065 0 0  2.279999999996006 0 0  2.299999999995948 0 0  2.319999999995889 0 0  2.339999999995831 0 0  2.359999999995773 0 0  2.379999999995714 0 0  2.399999999995656 0 0  2.419999999995598 0 0  2.439999999995539 0 0  2.45999999999548 0 0  2.479999999995422 0 0  2.499999999995364 0 0  2.519999999995306 0 0  2.539999999995247 0 0  2.559999999995188 0 0  2.57999999999513 0 0  2.599999999995072 0 0  2.619999999995013 0 0  2.639999999994955 0 0  2.659999999994897 0 0  2.679999999994838 0 0  2.69999999999478 0 0  2.719999999994722 0 0  2.739999999994663 0 0  2.759999999994605 0 0  2.779999999994546 0 0  2.799999999994487 0 0  2.819999999994429 0 0  2.839999999994371 0 0  2.859999999994312 0 0  2.879999999994254 0 0  2.899999999994196 0 0  2.919999999994137 0 0  2.939999999994078 0 0  2.95999999999402 0 0  2.979999999993962 0 0  2.999999999993904 0 0  3.019999999993845 0 0  3.039999999993786 0 0  3.059999999993728 0 0  3.07999999999367 0 0  3.099999999993612 0 0  3.119999999993553 0 0  3.139999999993495 0 0  3.159999999993437 0 0  3.179999999993378 0 0  3.199999999993319 0 0  3.21999999999326 0 0  3.239999999993202 0 0  3.259999999993144 0 0  3.279999999993086 0 0  3.299999999993027 0 0  3.319999999992969 0 0  3.33999999999291 0 0  3.359999999992852 0 0  3.379999999992793 0 0  3.399999999992735 0 0  3.419999999992677 0 0  3.439999999992618 0 0  3.45999999999256 0 0  3.479999999992502 0 0  3.499999999992443 0 0  3.519999999992385 0 0  3.539999999992327 0 0  3.559999999992268 0 0  3.579999999992209 0 0  3.599999999992151 0 0  3.619999999992093 0 0  3.639999999992034 0 0  3.659999999991975 0 0  3.679999999991917 0 0  3.699999999991859 0 0  3.719999999991801 0 0  3.739999999991742 0 0  3.759999999991683 0 0  3.779999999991625 0 0  3.799999999991567 0 0  3.819999999991508 0 0  3.83999999999145 0 0  3.859999999991391 0 0  3.879999999991333 0 0  3.899999999991275 0 0  3.919999999991217 0 0  3.939999999991158 0 0  3.9599999999911 0 0  3.979999999991041 0 0  3.999999999991017 0 0  4.019999999991003 0 0  4.039999999990989 0 0  4.059999999990975 0 0  4.079999999991 0 0  4.099999999991031 0 0  4.119999999991061 0 0  4.139999999991091 0 0  4.159999999991122 0 0  4.179999999991153 0 0  4.199999999991183 0 0  4.219999999991213 0 0  4.239999999991244 0 0  4.259999999991274 0 0  4.279999999991305 0 0  4.299999999991336 0 0  4.319999999991365 0 0  4.339999999991396 0 0  4.359999999991427 0 0  4.379999999991457 0 0  4.399999999991487 0 0  4.419999999991518 0 0  4.439999999991548 0 0  4.459999999991578 0 0  4.479999999991609 0 0  4.499999999991639 0 0  4.519999999991669 0 0  4.5399999999917 0 0  4.55999999999173 0 0  4.57999999999176 0 0  4.599999999991791 0 0  4.619999999991821 0 0  4.639999999991852 0 0  4.659999999991882 0 0  4.679999999991912 0 0  4.699999999991943 0 0  4.719999999991973 0 0  4.739999999992004 0 0  4.759999999992035 0 0  4.779999999992064 0 0  4.799999999992095 0 0  4.819999999992126 0 0  4.839999999992156 0 0  4.859999999992187 0 0  4.879999999992217 0 0  4.899999999992247 0 0  4.919999999992277 0 0  4.939999999992308 0 0  4.959999999992339 0 0  4.979999999992369 0 0  4.999999999992399 0 0  5.01999999999243 0 0  5.03999999999246 0 0  5.05999999999249 0 0  5.079999999992522 0 0  5.099999999992551 0 0  5.119999999992581 0 0  5.139999999992613 0 0  5.159999999992642 0 0  5.179999999992674 0 0  5.199999999992704 0 0  5.219999999992734 0 0  5.239999999992765 0 0  5.259999999992795 0 0  5.279999999992825 0 0  5.299999999992856 0 0  5.319999999992886 0 0  5.339999999992918 0 0  5.359999999992947 0 0  5.379999999992977 0 0  5.399999999993009 0 0  5.419999999993038 0 0  5.439999999993069 0 0  5.4599999999931 0 0  5.479999999993129 0 0  5.49999999999316 0 0  5.519999999993191 0 0  5.539999999993221 0 0  5.55999999999325 0 0  5.57999999999328 0 0  5.599999999993312 0 0  5.619999999993341 0 0  5.639999999993373 0 0  5.659999999993403 0 0  5.679999999993433 0 0  5.699999999993464 0 0  5.719999999993494 0 0  5.739999999993525 0 0  5.759999999993555 0 0  5.779999999993585 0 0  5.799999999993616 0 0  5.819999999993646 0 0  5.839999999993676 0 0  5.859999999993707 0 0  5.879999999993737 0 0  5.899999999993768 0 0  5.919999999993798 0 0  5.939999999993828 0 0  5.959999999993859 0 0  5.979999999993889 0 0  5.99999999999392 0 0  6.01999999999395 0 0  6.03999999999398 0 0  6.059999999994012 0 0  6.079999999994041 0 0  6.099999999994072 0 0  6.119999999994103 0 0  6.139999999994132 0 0  6.159999999994163 0 0  6.179999999994194 0 0  6.199999999994224 0 0  6.219999999994254 0 0  6.239999999994285 0 0  6.259999999994315 0 0  6.279999999994345 0 0  6.299999999994376 0 0  6.319999999994407 0 0  6.339999999994436 0 0  6.359999999994468 0 0  6.379999999994498 0 0  6.399999999994527 0 0  6.419999999994558 0 0  6.439999999994588 0 0  6.459999999994618 0 0  6.479999999994649 0 0  6.499999999994679 0 0  6.51999999999471 0 0  6.53999999999474 0 0  6.559999999994771 0 0  6.579999999994801 0 0  6.599999999994831 0 0  6.619999999994862 0 0  6.639999999994892 0 0  6.659999999994923 0 0  6.679999999994953 0 0  6.699999999994983 0 0  6.719999999995014 0 0  6.739999999995044 0 0  6.759999999995074 0 0  6.779999999995105 0 0  6.799999999995135 0 0  6.819999999995167 0 0  6.839999999995197 0 0  6.859999999995226 0 0  6.879999999995258 0 0  6.899999999995288 0 0  6.919999999995319 0 0  6.939999999995349 0 0  6.959999999995379 0 0  6.97999999999541 0 0  6.99999999999544 0 0  7.019999999995471 0 0  7.039999999995501 0 0  7.059999999995531 0 0  7.079999999995562 0 0  7.099999999995593 0 0  7.119999999995623 0 0  7.139999999995653 0 0  7.159999999995684 0 0  7.179999999995714 0 0  7.199999999995744 0 0  7.219999999995776 0 0  7.239999999995805 0 0  7.259999999995834 0 0  7.279999999995866 0 0  7.299999999995896 0 0  7.319999999995925 0 0  7.339999999995957 0 0  7.359999999995987 0 0  7.379999999996017 0 0  7.399999999996048 0 0  7.419999999996078 0 0  7.439999999996108 0 0  7.459999999996139 0 0 
[...]
<PointData  Vectors="f_8"> 
<DataArray  type="Float64"  Name="f_8"  NumberOfComponents="3" format="ascii">0.0000000000000000e+00 0.0000000000000000e+00 0.0000000000000000e+00  0.0000000000000000e+00 0.0000000000000000e+00 0.0000000000000000e+00  9.9709086681415969e-04 -1.5099635893159604e-02 0.0000000000000000e+00  -9.9714253279764250e-04 -1.5099634976041072e-02 0.0000000000000000e+00  0.0000000000000000e+00 0.0000000000000000e+00 0.0000000000000000e+00  0.0000000000000000e+00 0.0000000000000000e+00 0.0000000000000000e+00  0.0000000000000000e+00 0.0000000000000000e+00 0.0000000000000000e+00  0.0000000000000000e+00 0.0000000000000000e+00 0.0000000000000000e+00  0.0000000000000000e+00 0.0000000000000000e+00 0.0000000000000000e+00  0.0000000000000000e+00 0.0000000000000000e+00 0.0000000000000000e+00  0.0000000000000000e+00 0.0000000000000000e+00 0.0000000000000000e+00  0.0000000000000000e+00 0.0000000000000000e+00 0.0000000000000000e+00  0.0000000000000000e+00 0.0000000000000000e+00 0.0000000000000000e+00  0.0000000000000000e+00 0.0000000000000000e+00 0.0000000000000000e+00  0.0000000000000000e+00 0.0000000000000000e+00 0.0000000000000000e+00  0.0000000000000000e+00 0.0000000000000000e+00 0.0000000000000000e+00  0.0000000000000000e+00 0.0000000000000000e+00 0.0000000000000000e+00  0.0000000000000000e+00 0.0000000000000000e+00 0.0000000000000000e+00  0.0000000000000000e+00 0.0000000000000000e+00 0.0000000000000000e+00  0.0000000000000000e+00 0.0000000000000000e+00 0.0000000000000000e+00  0.0000000000000000e+00 0.0000000000000000e+00 0.0000000000000000e+00  0.0000000000000000e+00 0.0000000000000000e+00 0.0000000000000000e+00  0.0000000000000000e+00 0.0000000000000000e+00 0.0000000000000000e+00  0.0000000000000000e+00 0.0000000000000000e+00 0.0000000000000000e+00  0.0000000000000000e+00 0.0000000000000000e+00 0.0000000000000000e+00  0.0000000000000000e+00 0.0000000000000000e+00 0.0000000000000000e+00  0.0000000000000000e+00 0.0000000000000000e+00 0.0000000000000000e+00  0.0000000000000000e+00 0.0000000000000000e+00 0.0000000000000000e+00  0.0000000000000000e+00 0.0000000000000000e+00 0.0000000000000000e+00  0.0000000000000000e+00 0.0000000000000000e+00 0.0000000000000000e+00  0.0000000000000000e+00 0.0000000000000000e+00 0.0000000000000000e+00  0.0000000000000000e+00 0.0000000000000000e+00 0.0000000000000000e+00  0.0000000000000000e+00 0.0000000000000000e+00 0.0000000000000000e+00  0.0000000000000000e+00 0.0000000000000000e+00 0.0000000000000000e+00  0.0000000000000000e+00 0.0000000000000000e+00 0.0000000000000000e+00  0.0000000000000000e+00 0.0000000000000000e+00 0.0000000000000000e+00  0.0000000000000000e+00 0.0000000000000000e+00 0.0000000000000000e+00  0.0000000000000000e+00 0.0000000000000000e+00 0.0000000000000000e+00  0.0000000000000000e+00 0.0000000000000000e+00 0.0000000000000000e+00  0.0000000000000000e+00 0.0000000000000000e+00 0.0000000000000000e+00  0.0000000000000000e+00 0.0000000000000000e+00 0.0000000000000000e+00  0.0000000000000000e+00 0.0000000000000000e+00 0.0000000000000000e+00  0.0000000000000000e+00 0.0000000000000000e+00 0.0000000000000000e+00  0.0000000000000000e+00 0.0000000000000000e+00 0.0000000000000000e+00  0.0000000000000000e+00 0.0000000000000000e+00 0.0000000000000000e+00  0.0000000000000000e+00 0.0000000000000000e+00 0.0000000000000000e+00  0.0000000000000000e+00 0.0000000000000000e+00 0.0000000000000000e+00  0.0000000000000000e+00 0.0000000000000000e+00 0.0000000000000000e+00  0.0000000000000000e+00 0.0000000000000000e+00 0.0000000000000000e+00  0.0000000000000000e+00 0.0000000000000000e+00 0.0000000000000000e+00  0.0000000000000000e+00 0.0000000000000000e+00 0.0000000000000000e+00  0.0000000000000000e+00 0.0000000000000000e+00 0.0000000000000000e+00  0.0000000000000000e+00 0.0000000000000000e+00 0.0000000000000000e+00  -8.2467499973124156e-06 -5.3120193855152515e-06 0.0000000000000000e+00  -1.4931661540639249e-05 -8.7990307376507533e-06 0.0000000000000000e+00  -2.1058813482736882e-05 -1.1766626292102251e-05 0.0000000000000000e+00  -2.6930762801216290e-05 -1.4510094989955199e-05 0.0000000000000000e+00  -3.2672614297299397e-05 -1.7168308405051963e-05 0.0000000000000000e+00  -3.8343143020266686e-05 -1.9825493724560419e-05 0.0000000000000000e+00  -4.3972064764332506e-05 -2.2537676426345124e-05 0.0000000000000000e+00  -4.9575139943558287e-05 -2.5344017829278181e-05 0.0000000000000000e+00  -5.5160935523082911e-05 -2.8272849727378951e-05 0.0000000000000000e+00  -6.0734083815798464e-05 -3.1345211709510497e-05 0.0000000000000000e+00  -6.6296958243049610e-05 -3.4577044422412313e-05 0.0000000000000000e+00  -7.1850587919809134e-05 -3.7980608046629322e-05 0.0000000000000000e+00  -7.7395184236623489e-05 -4.1565433461702335e-05 0.0000000000000000e+00  -8.2930458265304482e-05 -4.5338981004150660e-05 0.0000000000000000e+00  -8.8455819309659389e-05 -4.9307110107667017e-05 0.0000000000000000e+00  -9.3970502636987814e-05 -5.3474422817758856e-05 0.0000000000000000e+00  -9.9473653234240030e-05 -5.7844520763630857e-05 0.0000000000000000e+00  -1.0496438129538147e-04 -6.2420201176111579e-05 0.0000000000000000e+00  -1.1044179901707731e-04 -6.7203608943569845e-05 0.0000000000000000e+00  -1.1590504475709279e-04 -7.2196356275870715e-05 0.0000000000000000e+00  -1.2135329850355988e-04 -7.7399618039890000e-05 0.0000000000000000e+00  -1.2678579129874804e-04 -8.2814208507885149e-05 0.0000000000000000e+00  -1.3220181042754341e-04 -8.8440643687673069e-05 0.0000000000000000e+00  -1.3760070163367489e-04 -9.4279192316853696e-05 0.0000000000000000e+00  -1.4298186925878318e-04 -1.0032991783784121e-04 0.0000000000000000e+00  -1.4834477494672595e-04 -1.0659271312172713e-04 0.0000000000000000e+00  -1.5368893537862199e-04 -1.1306732930912690e-04 0.0000000000000000e+00  -1.5901391937823918e-04 -1.1975339984031086e-04 0.0000000000000000e+00  -1.6431934463635186e-04 -1.2665046052486630e-04 0.0000000000000000e+00  -1.6960487423610838e-04 -1.3375796633222743e-04 0.0000000000000000e+00  -1.7487021311212732e-04 -1.4107530545423805e-04 0.0000000000000000e+00  -1.8011510453919314e-04 -1.4860181108941953e-04 0.0000000000000000e+00  -1.8533932671868165e-04 -1.5633677131856829e-04 0.0000000000000000e+00  -1.9054268950985083e-04 -1.6427943737748580e-04 0.0000000000000000e+00  -1.9572503133721264e-04 -1.7242903058127597e-04 0.0000000000000000e+00  -2.0088621629311390e-04 -1.8078474811291008e-04 0.0000000000000000e+00  -2.0602613144553184e-04 -1.8934576785456958e-04 0.0000000000000000e+00  -2.1114468435422140e-04 -1.9811125241206982e-04 0.0000000000000000e+00  -2.1624180079326614e-04 -2.0708035245922812e-04 0.0000000000000000e+00  -2.2131742267436931e-04 -2.1625220950946013e-04 0.0000000000000000e+00  -2.2637150616258906e-04 -2.2562595820545077e-04 0.0000000000000000e+00  -2.3140401997442887e-04 -2.3520072820388242e-04 0.0000000000000000e+00  -2.3641494384706287e-04 -2.4497564572048417e-04 0.0000000000000000e+00  -2.4140426716684306e-04 -2.5494983479071607e-04 0.0000000000000000e+00  -2.4637198774501171e-04 -2.6512241829295492e-04 0.0000000000000000e+00  -2.5131811072859615e-04 -2.7549251877385136e-04 0.0000000000000000e+00  -2.5624264763475524e-04 -2.8605925910939948e-04 0.0000000000000000e+00  -2.6114561549728525e-04 -2.9682176303003977e-04 0.0000000000000000e+00  -2.6602703611455937e-04 -3.0777915553365317e-04 0.0000000000000000e+00  -2.7088693538880333e-04 -3.1893056320652909e-04 0.0000000000000000e+00  -2.7572534274728129e-04 -3.3027511446913761e-04 0.0000000000000000e+00  -2.8054229063667168e-04 -3.4181193976080739e-04 0.0000000000000000e+00  -2.8533781408260068e-04 -3.5354017167506512e-04 0.0000000000000000e+00  -2.9011195030699077e-04 -3.6545894505542247e-04 0.0000000000000000e+00  -2.9486473839654030e-04 -3.7756739705971300e-04 0.0000000000000000e+00  -2.9959621901628494e-04 -3.8986466719967292e-04 0.0000000000000000e+00  -3.0430643416278381e-04 -4.0234989736126546e-04 0.0000000000000000e+00  -3.0899542695203574e-04 -4.1502223181024388e-04 0.0000000000000000e+00  -3.1366324143774203e-04 -4.2788081718660680e-04 0.0000000000000000e+00  -3.1830992245602218e-04 -4.4092480249091371e-04 0.0000000000000000e+00  -3.2293551549311352e-04 -4.5415333906482396e-04 0.0000000000000000e+00  -3.2754006657298136e-04 -4.6756558056772326e-04 0.0000000000000000e+00  -3.3212362216215234e-04 -4.8116068295096424e-04 0.0000000000000000e+00  -3.3668622908938385e-04 -4.9493780443085980e-04 0.0000000000000000e+00  -3.4122793447808762e-04 -5.0889610546131004e-04 0.0000000000000000e+00  -3.4574878568967461e-04 -5.2303474870671416e-04 0.0000000000000000e+00  -3.5024883027625047e-04 -5.3735289901569755e-04 0.0000000000000000e+00  -3.5472811594127243e-04 -5.5184972339598415e-04 0.0000000000000000e+00  -3.5918669050696964e-04 -5.6652439099064372e-04 0.0000000000000000e+00  -3.6362460188748977e-04 -5.8137607305584619e-04 0.0000000000000000e+00  -3.6804189806689081e-04 -5.9640394294023622e-04 0.0000000000000000e+00  -3.7243862708120066e-04 -6.1160717606592910e-04 0.0000000000000000e+00  -3.7681483700389333e-04 -6.2698494991109631e-04 0.0000000000000000e+00  -3.8117057593422150e-04 -6.4253644399412909e-04 0.0000000000000000e+00  -3.8550589198791714e-04 -6.5826083985928317e-04 0.0000000000000000e+00  -3.8982083328986753e-04 -6.7415732106373537e-04 0.0000000000000000e+00  -3.9411544796841237e-04 -6.9022507316596627e-04 0.0000000000000000e+00  -3.9838978415096988e-04 -7.0646328371535346e-04 0.0000000000000000e+00  -4.0264388996075429e-04 -7.2287114224291106e-04 0.0000000000000000e+00  -4.0687781351437472e-04 -7.3944784025304331e-04 0.0000000000000000e+00  -4.1109160292014435e-04 -7.5619257121625576e-04 0.0000000000000000e+00  -4.1528530627695415e-04 -7.7310453056270568e-04 0.0000000000000000e+00  -4.1945897167359667e-04 -7.9018291567652305e-04 0.0000000000000000e+00  -4.2361264718844370e-04 -8.0742692589082644e-04 0.0000000000000000e+00  -4.2774638088938850e-04 -8.2483576248334361e-04 0.0000000000000000e+00  -4.3186022083399785e-04 -8.4240862867259836e-04 0.0000000000000000e+00  -4.3595421506981228e-04 -8.6014472961456145e-04 0.0000000000000000e+00  -4.4002841163475723e-04 -8.7804327239976432e-04 0.0000000000000000e+00  -4.4408285855762402e-04 -8.9610346605076545e-04 0.0000000000000000e+00  -4.4811760385860184e-04 -9.1432452151997380e-04 0.0000000000000000e+00  -4.5213269554983409e-04 -9.3270565168775512e-04 0.0000000000000000e+00  -4.5612818163598108e-04 -9.5124607136080322e-04 0.0000000000000000e+00  -4.6010411011478201e-04 -9.6994499727073695e-04 0.0000000000000000e+00  -4.6406052897760128e-04 -9.8880164807288993e-04 0.0000000000000000e+00  -4.6799748620995733e-04 -1.0078152443452810e-03 0.0000000000000000e+00  -4.7191502979202431e-04 -1.0269850085877271e-03 0.0000000000000000e+00  -4.7581320769910694e-04 -1.0463101652210874e-03 0.0000000000000000e+00  -4.7969206790208704e-04 -1.0657899405866226e-03 0.0000000000000000e+00  -4.8355165836783413e-04 -1.0854235629454397e-03 0.0000000000000000e+00  -4.8739202705959449e-04 -1.1052102624780384e-03 0.0000000000000000e+00  -4.9121322193734275e-04 -1.1251492712839103e-03 0.0000000000000000e+00  -4.9501529095810919e-04 -1.1452398233812169e-03 0.0000000000000000e+00  -4.9879828207627667e-04 -1.1654811547065066e-03 0.0000000000000000e+00  -5.0256224324385140e-04 -1.1858725031144797e-03 0.0000000000000000e+00  -5.0630722241071268e-04 -1.2064131083777989e-03 0.0000000000000000e+00  -5.1003326752483704e-04 -1.2271022121869278e-03 0.0000000000000000e+00  -5.1374042653249872e-04 -1.2479390581499950e-03 0.0000000000000000e+00  -5.1742874737845579e-04 -1.2689228917926907e-03 0.0000000000000000e+00  -5.2109827800611488e-04 -1.2900529605581674e-03 0.0000000000000000e+00  -5.2474906635768142e-04 -1.3113285138069719e-03 0.0000000000000000e+00  -5.2838116037429031e-04 -1.3327488028169957e-03 0.0000000000000000e+00  -5.3199460799612788e-04 -1.3543130807834147e-03 0.0000000000000000e+00  -5.3558945716254095e-04 -1.3760206028186554e-03 0.0000000000000000e+00  -5.3916575581213259e-04 -1.3978706259523729e-03 0.0000000000000000e+00  -5.4272355188284699e-04 -1.4198624091314319e-03 0.0000000000000000e+00  -5.4626289331204927e-04 -1.4419952132198775e-03 0.0000000000000000e+00  -5.4978382803659142e-04 -1.4642683009989436e-03 0.0000000000000000e+00  -5.5328640399287610e-04 -1.4866809371670315e-03 0.0000000000000000e+00  -5.5677066911690863e-04 -1.5092323883397101e-03 0.0000000000000000e+00  -5.6023667134435097e-04 -1.5319219230497218e-03 0.0000000000000000e+00  -5.6368445861055920e-04 -1.5547488117469827e-03 0.0000000000000000e+00  -5.6711407885062229e-04 -1.5777123267985721e-03 0.0000000000000000e+00  -5.7052557999940257e-04 -1.6008117424887575e-03 0.0000000000000000e+00  -5.7391900999155879e-04 -1.6240463350189870e-03 0.0000000000000000e+00  -5.7729441676157643e-04 -1.6474153825078960e-03 0.0000000000000000e+00  -5.8065184824379081e-04 -1.6709181649913155e-03 0.0000000000000000e+00  -5.8399135237240931e-04 -1.6945539644222785e-03 0.0000000000000000e+00  -5.8731297708152722e-04 -1.7183220646710370e-03 0.0000000000000000e+00  -5.9061677030514679e-04 -1.7422217515250533e-03 0.0000000000000000e+00  -5.9390277997718873e-04 -1.7662523126890158e-03 0.0000000000000000e+00  -5.9717105403150699e-04 -1.7904130377848443e-03 0.0000000000000000e+00  -6.0042164040190074e-04 -1.8147032183516989e-03 0.0000000000000000e+00  -6.0365458702212212e-04 -1.8391221478459882e-03 0.0000000000000000e+00  -6.0686994182588335e-04 -1.8636691216413720e-03 0.0000000000000000e+00  -6.1006775274686923e-04 -1.8883434370287652e-03 0.0000000000000000e+00  -6.1324806771873865e-04 -1.9131443932163565e-03 0.0000000000000000e+00  -6.1641093467513293e-04 -1.9380712913296028e-03 0.0000000000000000e+00  -6.1955640154967920e-04 -1.9631234344112411e-03 0.0000000000000000e+00  -6.2268451627599426e-04 -1.9883001274212898e-03 0.0000000000000000e+00  -6.2579532678768899e-04 -2.0136006772370593e-03 0.0000000000000000e+00  -6.2888888101837097e-04 -2.0390243926531482e-03 0.0000000000000000e+00  -6.3196522690164706e-04 -2.0645705843814533e-03 0.0000000000000000e+00  -6.3502441237112649e-04 -2.0902385650511750e-03 0.0000000000000000e+00  -6.3806648536042130e-04 -2.1160276492088259e-03 0.0000000000000000e+00  -6.4109149380314724e-04 -2.1419371533182205e-03 0.0000000000000000e+00  -6.4409948563293000e-04 -2.1679663957604864e-03 0.0000000000000000e+00  -6.4709050878339748e-04 -2.1941146968340809e-03 0.0000000000000000e+00  -6.5006461118818492e-04 -2.2203813787547697e-03 0.0000000000000000e+00  -6.5302184078093776e-04 -2.2467657656556452e-03 0.0000000000000000e+00  -6.5596224549530925e-04 -2.2732671835871314e-03 0.0000000000000000e+00  -6.5888587326495991e-04 -2.2998849605169662e-03 0.0000000000000000e+00  -6.6179277202356272e-04 -2.3266184263302314e-03 0.0000000000000000e+00  -6.6468298970479554e-04 -2.3534669128293375e-03 0.0000000000000000e+00  -6.6755657424234826e-04 -2.3804297537340295e-03 0.0000000000000000e+00  -6.7041357356991912e-04 -2.4075062846813846e-03 0.0000000000000000e+00  -6.7325403562121331e-04 -2.4346958432258231e-03 0.0000000000000000e+00  -6.7607800832994718e-04 -2.4619977688391135e-03 0.0000000000000000e+00  -6.7888553962984260e-04 -2.4894114029103587e-03 0.0000000000000000e+00  -6.8167667745462775e-04 -2.5169360887459945e-03 0.0000000000000000e+00  -6.8445146973804152e-04 -2.5445711715698120e-03 0.0000000000000000e+00  -6.8720996441382976e-04 -2.5723159985229444e-03 0.0000000000000000e+00  -6.8995220941574361e-04 -2.6001699186638761e-03 0.0000000000000000e+00  -6.9267825267754161e-04 -2.6281322829684248e-03 0.0000000000000000e+00  -6.9538814213298997e-04 -2.6562024443297686e-03 0.0000000000000000e+00  -6.9808192571586022e-04 -2.6843797575584229e-03 0.0000000000000000e+00  -7.0075965135993009e-04 -2.7126635793822676e-03 0.0000000000000000e+00  -7.0342136699898033e-04 -2.7410532684465235e-03 0.0000000000000000e+00  -7.0606712056679613e-04 -2.7695481853137610e-03 0.0000000000000000e+00  -7.0869695999716822e-04 -2.7981476924638987e-03 0.0000000000000000e+00  -7.1131093322389176e-04 -2.8268511542942081e-03 0.0000000000000000e+00  -7.1390908818076714e-04 -2.8556579371193124e-03 0.0000000000000000e+00  -7.1649147280159918e-04 -2.8845674091711885e-03 0.0000000000000000e+00  -7.1905813502019366e-04 -2.9135789405991706e-03 0.0000000000000000e+00  -7.2160912277036040e-04 -2.9426919034699277e-03 0.0000000000000000e+00  -7.2414448398591333e-04 -2.9719056717675009e-03 0.0000000000000000e+00  -7.2666426660066615e-04 -3.0012196213932804e-03 0.0000000000000000e+00  -7.2916851854843573e-04 -3.0306331301659987e-03 0.0000000000000000e+00  -7.3165728776304368e-04 -3.0601455778217464e-03 0.0000000000000000e+00  -7.3413062217831478e-04 -3.0897563460139696e-03 0.0000000000000000e+00  -7.3658856972807270e-04 -3.1194648183134662e-03 0.0000000000000000e+00  -7.3903117834614419e-04 -3.1492703802083921e-03 0.0000000000000000e+00  -7.4145849596635638e-04 -3.1791724191042505e-03 0.0000000000000000e+00  -7.4387057052253762e-04 -3.2091703243239018e-03 0.0000000000000000e+00  -7.4626744994852083e-04 -3.2392634871075609e-03 0.0000000000000000e+00  -7.4864918217813791e-04 -3.2694513006127951e-03 0.0000000000000000e+00  -7.5101581514522232e-04 -3.2997331599145217e-03 0.0000000000000000e+00  -7.5336739678360880e-04 -3.3301084620050159e-03 0.0000000000000000e+00  -7.5570397502713296e-04 -3.3605766057939130e-03 0.0000000000000000e+00  -7.5802559780962890e-04 -3.3911369921081989e-03 0.0000000000000000e+00  -7.6033231306493201e-04 -3.4217890236922011e-03 0.0000000000000000e+00  -7.6262416872687920e-04 -3.4525321052076116e-03 0.0000000000000000e+00  -7.6490121272931096e-04 -3.4833656432334791e-03 0.0000000000000000e+00  -7.6716349300606540e-04 -3.5142890462662021e-03 0.0000000000000000e+00  -7.6941105749097900e-04 -3.5453017247195351e-03 0.0000000000000000e+00  -7.7164395411789095e-04 -3.5764030909245827e-03 0.0000000000000000e+00  -7.7386223082064260e-04 -3.6075925591298060e-03 0.0000000000000000e+00  -7.7606593553307369e-04 -3.6388695455010197e-03 0.0000000000000000e+00  -7.7825511618902080e-04 -3.6702334681213838e-03 0.0000000000000000e+00  -7.8042982072232953e-04 -3.7016837469914282e-03 0.0000000000000000e+00  -7.8259009706684317e-04 -3.7332198040290880e-03 0.0000000000000000e+00  -7.8473599315639735e-04 -3.7648410630695536e-03 0.0000000000000000e+00  -7.8686755692482994e-04 -3.7965469498653904e-03 0.0000000000000000e+00  -7.8898483630598514e-04 -3.8283368920865317e-03 0.0000000000000000e+00  -7.9108787923370873e-04 -3.8602103193203373e-03 0.0000000000000000e+00  -7.9317673364183786e-04 -3.8921666630714002e-03 0.0000000000000000e+00  -7.9525144746421083e-04 -3.9242053567617157e-03 0.0000000000000000e+00  -7.9731206863467021e-04 -3.9563258357306263e-03 0.0000000000000000e+00  -7.9935864508705985e-04 -3.9885275372348447e-03 0.0000000000000000e+00  -8.0139122475522066e-04 -4.0208099004484330e-03 0.0000000000000000e+00  -8.0340985557299227e-04 -4.0531723664628113e-03 0.0000000000000000e+00  -8.0541458547421583e-04 -4.0856143782867444e-03 0.0000000000000000e+00  -8.0740546239273302e-04 -4.1181353808463573e-03 0.0000000000000000e+00  -8.0938253426238475e-04 -4.1507348209851224e-03 0.0000000000000000e+00  -8.1134584901701283e-04 -4.1834121474638762e-03 0.0000000000000000e+00  -8.1329545459045925e-04 -4.2161668109607902e-03 0.0000000000000000e+00  -8.1523139891656821e-04 -4.2489982640714075e-03 0.0000000000000000e+00  -8.1715372992917997e-04 -4.2819059613086290e-03 0.0000000000000000e+00  -8.1906249556213209e-04 -4.3148893591026969e-03 0.0000000000000000e+00  -8.2095774374926636e-04 -4.3479479158012053e-03 0.0000000000000000e+00  -8.2283952242442405e-04 -4.3810810916691091e-03 0.0000000000000000e+00  -8.2470787952144530e-04 -4.4142883488887110e-03 0.0000000000000000e+00  -8.2656286297417322e-04 -4.4475691515596695e-03 0.0000000000000000e+00  -8.2840452071645024e-04 -4.4809229656990000e-03 0.0000000000000000e+00  -8.3023290068211535e-04 -4.5143492592410739e-03 0.0000000000000000e+00  -8.3204805080500826e-04 -4.5478475020376066e-03 0.000