<?xml version="1.0"?>
<VTKFile type="UnstructuredGrid"  version="0.1"  >
<UnstructuredGrid>
<Piece  NumberOfPoints="63" NumberOfCells="80">
<Points>
<DataArray  type="Float64"  NumberOfComponents="3"  format="ascii">0 0 0  0 1 0  10 1 0  10 0 0  0 0.5000000000020595 0  0.499999999999551 0 0  0.9999999999991888 0 0  1.499999999998284 0 0  1.999999999996824 0 0  2.499999999995364 0 0  2.999999999993903 0 0  3.499999999992442 0 0  3.999999999991017 0 0  4.499999999991639 0 0  4.999999999992399 0 0  5.499999999993159 0 0  5.99999999999392 0 0  6.499999999994679 0 0  6.999999999995438 0 0  7.499999999996199 0 0  7.99999999999696 0 0  8.499999999997719 0 0  8.999999999998479 0 0  9.49999999999924 0 0  10 0.4999999999986921 0  9.5 1 0  8.999999999999998 1 0  8.499999999999998 1 0  7.999999999999996 1 0  7.499999999999995 1 0  6.999999999999995 1 0  6.499999999999996 1 0  5.999999999999996 1 0  5.499999999999996 1 0  4.999999999999996 1 0  4.499999999999997 1 0  3.999999999999996 1 0  3.499999999999997 1 0  2.999999999999998 1 0  2.499999999999998 1 0  1.999999999999998 1 0  1.5 1 0  0.9999999999999982 1 0  0.5 1 0  0.4999999999997755 0.5000000000018912 0  0.9999999999995937 0.5000000000017228 0  1.499999999999143 0.5000000000015543 0  1.999999999998411 0.500000000001386 0  2.499999999997681 0.5000000000012175 0  2.99999999999695 0.5000000000010492 0  3.49999999999622 0.5000000000008809 0  3.999999999995507 0.5000000000007125 0  4.499999999995818 0.5000000000005442 0  4.999999999996197 0.5000000000003757 0  5.499999999996577 0.5000000000002074 0  5.999999999996958 0.5000000000000391 0  6.499999999997338 0.4999999999998705 0  6.999999999997716 0.4999999999997022 0  7.499999999998098 0.4999999999995339 0  7.999999999998479 0.4999999999993656 0  8.49999999999886 0.4999999999991973 0  8.99999999999924 0.499999999999029 0  9.49999999999962 0.4999999999988605 0  </DataArray>
</Points>
<Cells>
<DataArray  type="UInt32"  Name="connectivity"  format="ascii">1 4 43  4 43 44  42 43 44  42 44 45  41 42 45  41 45 46  40 41 46  40 46 47  39 40 47  39 47 48  38 39 48  38 48 49  37 38 49  37 49 50  36 37 50  36 50 51  35 36 51  35 51 52  34 35 52  34 52 53  33 34 53  33 53 54  32 33 54  32 54 55  31 32 55  31 55 56  30 31 56  30 56 57  29 30 57  29 57 58  28 29 58  28 58 59  27 28 59  27 59 60  26 27 60  26 60 61  25 26 61  25 61 62  2 25 62  2 24 62  0 4 44  0 5 44  5 44 45  5 6 45  6 45 46  6 7 46  7 46 47  7 8 47  8 47 48  8 9 48  9 48 49  9 10 49  10 49 50  10 11 50  11 50 51  11 12 51  12 51 52  12 13 52  13 52 53  13 14 53  14 53 54  14 15 54  15 54 55  15 16 55  16 55 56  16 17 56  17 56 57  17 18 57  18 57 58  18 19 58  19 58 59  19 20 59  20 59 60  20 21 60  21 60 61  21 22 61  22 61 62  22 23 62  23 24 62  3 23 24  </DataArray>
<DataArray  type="UInt32"  Name="offsets"  format="ascii">3 6 9 12 15 18 21 24 27 30 33 36 39 42 45 48 51 54 57 60 63 66 69 72 75 78 81 84 87 90 93 96 99 102 105 108 111 114 117 120 123 126 129 132 135 138 141 144 147 150 153 156 159 162 165 168 171 174 177 180 183 186 189 192 195 198 201 204 207 210 213 216 219 222 225 228 231 234 237 240 </DataArray>
<DataArray  type="UInt8"  Name="types"  format="ascii">5 5 5 5 5 5 5 5 5 5 5 5 5 5 5 5 5 5 5 5 5 5 5 5 5 5 5 5 5 5 5 5 5 5 5 5 5 5 5 5 5 5 5 5 5 5 5 5 5 5 5 5 5 5 5 5 5 5 5 5 5 5 5 5 5 5 5 5 5 5 5 5 5 5 5 5 5 5 5 5 </DataArray>
</Cells>
<PointData  Vectors="f_8"> 
<DataArray  type="Float64"  Name="f_8"  NumberOfComponents="3" format="ascii">0.0000000000000000e+00 0.0000000000000000e+00 0.0000000000000000e+00  0.0000000000000000e+00 0.0000000000000000e+00 0.0000000000000000e+00  5.3190416705427854e-04 -8.1543569524477975e-03 0.0000000000000000e+00  -5.3991903916238170e-04 -8.1543492663612872e-03 0.0000000000000000e+00  0.0000000000000000e+00 0.0000000000000000e+00 0.0000000000000000e+00  -7.6706460886216256e-05 -5.6505087612957933e-05 0.0000000000000000e+00  -1.4522278817124910e-04 -1.7834117775488708e-04 0.0000000000000000e+00  -2.0695764032678638e-04 -3.6423855460561086e-04 0.0000000000000000e+00  -2.6204481296454997e-04 -6.0771824316261020e-04 0.0000000000000000e+00  -3.1074521731394588e-04 -9.0219663159443676e-04 0.0000000000000000e+00  -3.5340986062198303e-04 -1.2414388417845371e-03 0.0000000000000000e+00  -3.9042409434185676e-04 -1.6196068831159022e-03 0.0000000000000000e+00  -4.2218493082180070e-04 -2.0312648985968402e-03 0.0000000000000000e+00  -4.4909320247190813e-04 -2.4713796759299315e-03 0.0000000000000000e+00  -4.7155097758213530e-04 -2.9353206731182685e-03 0.0000000000000000e+00  -4.8996072246072081e-04 -3.4188600102326903e-03 0.0000000000000000e+00  -5.0472503137074479e-04 -3.9181724648291484e-03 0.0000000000000000e+00  -5.1624653964274265e-04 -4.4298354703260446e-03 0.0000000000000000e+00  -5.2492789565078890e-04 -4.9508291157041532e-03 0.0000000000000000e+00  -5.3117175146358785e-04 -5.4785361461051028e-03 0.0000000000000000e+00  -5.3538075853727500e-04 -6.0107419645545239e-03 0.0000000000000000e+00  -5.3795756040116909e-04 -6.5456346319571696e-03 0.0000000000000000e+00  -5.3930475716010230e-04 -7.0818048226628898e-03 0.0000000000000000e+00  -5.3982469931493587e-04 -7.6182453758448648e-03 0.0000000000000000e+00  -4.0726966529693472e-06 -8.1543352728753998e-03 0.0000000000000000e+00  5.3182971056417157e-04 -7.6181023830108096e-03 0.0000000000000000e+00  5.3137379983095550e-04 -7.0815171950247800e-03 0.0000000000000000e+00  5.3013426799935278e-04 -6.5452031748361250e-03 0.0000000000000000e+00  5.2770840593989021e-04 -6.0101667256784565e-03 0.0000000000000000e+00  5.2369351858191644e-04 -5.4778171131555321e-03 0.0000000000000000e+00  5.1768693543198041e-04 -4.9499662810493930e-03 0.0000000000000000e+00  5.0928599605141057e-04 -4.4288288301336000e-03 0.0000000000000000e+00  4.9808804299756259e-04 -3.9170220147749764e-03 0.0000000000000000e+00  4.8369041824019150e-04 -3.4175657394434344e-03 0.0000000000000000e+00  4.6569045863538249e-04 -2.9338825485983868e-03 0.0000000000000000e+00  4.4368548403792674e-04 -2.4697975952974937e-03 0.0000000000000000e+00  4.1727276090427741e-04 -2.0295385437717178e-03 0.0000000000000000e+00  3.8604938829380696e-04 -1.6177352686972354e-03 0.0000000000000000e+00  3.4961193535075166e-04 -1.2394189406465458e-03 0.0000000000000000e+00  3.0755524849386605e-04 -9.0001936053969278e-04 0.0000000000000000e+00  2.5946820583951704e-04 -6.0535817251191053e-04 0.0000000000000000e+00  2.0491624145425340e-04 -3.6164001067000935e-04 0.0000000000000000e+00  1.4335763793888002e-04 -1.7551530670347401e-04 0.0000000000000000e+00  7.3838621076732991e-05 -5.4637846293949584e-05 0.0000000000000000e+00  1.1538337072073133e-06 -4.5051074028012398e-05 0.0000000000000000e+00  -5.1477936721106034e-08 -1.6730705278876506e-04 0.0000000000000000e+00  -7.7701586463192108e-07 -3.5427316632544029e-04 0.0000000000000000e+00  -1.2532039265245836e-06 -5.9881769141790467e-04 0.0000000000000000e+00  -1.6271243354209497e-06 -8.9430464549323824e-04 0.0000000000000000e+00  -1.9527219398245989e-06 -1.2344948812340879e-03 0.0000000000000000e+00  -2.2480588864948170e-06 -1.6135503358461860e-03 0.0000000000000000e+00  -2.5190223404481220e-06 -2.0260352777481971e-03 0.0000000000000000e+00  -2.7675134033195862e-06 -2.4669165524372426e-03 0.0000000000000000e+00  -2.9941439221934231e-06 -2.9315636385569919e-03 0.0000000000000000e+00  -3.1991105839663777e-06 -3.4157486630372073e-03 0.0000000000000000e+00  -3.3824766362877462e-06 -3.9156464056085850e-03 0.0000000000000000e+00  -3.5442625661544387e-06 -4.4278343002128418e-03 0.0000000000000000e+00  -3.6844754812382343e-06 -4.9492924354551486e-03 0.0000000000000000e+00  -3.8031192919737582e-06 -5.4774035547665578e-03 0.0000000000000000e+00  -3.9002002092452564e-06 -6.0099530565425443e-03 0.0000000000000000e+00  -3.9757347076365839e-06 -6.5451289947020654e-03 0.0000000000000000e+00  -4.0297649586388052e-06 -7.0815220819514914e-03 0.0000000000000000e+00  -4.0623423192031616e-06 -7.6181256948034065e-03 0.0000000000000000e+00  </DataArray> 
</PointData> 
</Piece>
</UnstructuredGrid>
</VTKFile>