<?xml version="1.0"?>
<VTKFile type="UnstructuredGrid"  version="0.1"  >
<UnstructuredGrid>
<Piece  NumberOfPoints="25551" NumberOfCells="50000">
<Points>
<DataArray  type="Float64"  NumberOfComponents="3"  format="ascii">0 0 0  0 1 0  10 1 0  10 0 0  0 0.9799999999999167 0  0 0.9599999999998334 0  0 0.9399999999997501 0  0 0.9199999999996669 0  0 0.8999999999995836 0  0 0.8799999999995082 0  0 0.8599999999995835 0  0 0.8399999999997224 0  0 0.8199999999998612 0  0 0.8 0  0 0.7800000000001388 0  0 0.7600000000002776 0  0 0.7400000000004163 0  0 0.7200000000005551 0  0 0.7000000000006938 0  0 0.6800000000008326 0  0 0.6600000000009714 0  0 0.64000000000111 0  0 0.6200000000012488 0  0 0.6000000000013874 0  0 0.5800000000015262 0  0 0.5600000000016649 0  0 0.5400000000018037 0  0 0.5200000000019424 0  0 0.5000000000020595 0  0 0.4800000000019978 0  0 0.4600000000019147 0  0 0.4400000000018314 0  0 0.4200000000017482 0  0 0.4000000000016649 0  0 0.3800000000015817 0  0 0.3600000000014983 0  0 0.3400000000014151 0  0 0.3200000000013319 0  0 0.3000000000012486 0  0 0.2800000000011654 0  0 0.2600000000010821 0  0 0.240000000000999 0  0 0.2200000000009157 0  0 0.2000000000008325 0  0 0.1800000000007492 0  0 0.1600000000006659 0  0 0.1400000000005828 0  0 0.1200000000004994 0  0 0.1000000000004162 0  0 0.08000000000033292 0  0 0.06000000000024974 0  0 0.04000000000016646 0  0 0.02000000000008317 0  0.01999999999998493 0 0  0.03999999999996986 0 0  0.05999999999995478 0 0  0.07999999999993983 0 0  0.09999999999992584 0 0  0.1199999999999119 0 0  0.1399999999998979 0 0  0.159999999999884 0 0  0.17999999999987 0 0  0.199999999999856 0 0  0.219999999999842 0 0  0.2399999999998273 0 0  0.2599999999998105 0 0  0.2799999999997938 0 0  0.2999999999997771 0 0  0.3199999999997583 0 0  0.339999999999736 0 0  0.3599999999997136 0 0  0.3799999999996914 0 0  0.3999999999996677 0 0  0.4199999999996426 0 0  0.4399999999996176 0 0  0.4599999999995925 0 0  0.4799999999995705 0 0  0.4999999999995511 0 0  0.5199999999995315 0 0  0.5399999999995121 0 0  0.5599999999994962 0 0  0.5799999999994822 0 0  0.5999999999994682 0 0  0.6199999999994542 0 0  0.6399999999994403 0 0  0.6599999999994264 0 0  0.6799999999994123 0 0  0.6999999999993983 0 0  0.7199999999993844 0 0  0.7399999999993703 0 0  0.7599999999993565 0 0  0.7799999999993424 0 0  0.7999999999993285 0 0  0.8199999999993145 0 0  0.8399999999993004 0 0  0.8599999999992867 0 0  0.8799999999992726 0 0  0.8999999999992587 0 0  0.9199999999992446 0 0  0.9399999999992306 0 0  0.9599999999992168 0 0  0.9799999999992027 0 0  0.9999999999991889 0 0  1.019999999999175 0 0  1.039999999999161 0 0  1.059999999999147 0 0  1.079999999999133 0 0  1.099999999999119 0 0  1.119999999999105 0 0  1.139999999999091 0 0  1.159999999999077 0 0  1.179999999999059 0 0  1.199999999999033 0 0  1.219999999999009 0 0  1.239999999998983 0 0  1.259999999998947 0 0  1.2799999999989 0 0  1.299999999998853 0 0  1.319999999998805 0 0  1.339999999998752 0 0  1.359999999998693 0 0  1.379999999998635 0 0  1.399999999998577 0 0  1.419999999998518 0 0  1.43999999999846 0 0  1.459999999998401 0 0  1.479999999998343 0 0  1.499999999998285 0 0  1.519999999998226 0 0  1.539999999998168 0 0  1.559999999998109 0 0  1.579999999998051 0 0  1.599999999997992 0 0  1.619999999997934 0 0  1.639999999997876 0 0  1.659999999997817 0 0  1.679999999997759 0 0  1.6999999999977 0 0  1.719999999997642 0 0  1.739999999997583 0 0  1.759999999997525 0 0  1.779999999997467 0 0  1.799999999997408 0 0  1.81999999999735 0 0  1.839999999997291 0 0  1.859999999997233 0 0  1.879999999997175 0 0  1.899999999997116 0 0  1.919999999997058 0 0  1.939999999996999 0 0  1.959999999996941 0 0  1.979999999996882 0 0  1.999999999996824 0 0  2.019999999996766 0 0  2.039999999996707 0 0  2.059999999996649 0 0  2.07999999999659 0 0  2.099999999996532 0 0  2.119999999996474 0 0  2.139999999996415 0 0  2.159999999996357 0 0  2.179999999996299 0 0  2.19999999999624 0 0  2.219999999996181 0 0  2.239999999996123 0 0  2.259999999996065 0 0  2.279999999996006 0 0  2.299999999995948 0 0  2.319999999995889 0 0  2.339999999995831 0 0  2.359999999995773 0 0  2.379999999995714 0 0  2.399999999995656 0 0  2.419999999995598 0 0  2.439999999995539 0 0  2.45999999999548 0 0  2.479999999995422 0 0  2.499999999995364 0 0  2.519999999995306 0 0  2.539999999995247 0 0  2.559999999995188 0 0  2.57999999999513 0 0  2.599999999995072 0 0  2.619999999995013 0 0  2.639999999994955 0 0  2.659999999994897 0 0  2.679999999994838 0 0  2.69999999999478 0 0  2.719999999994722 0 0  2.739999999994663 0 0  2.759999999994605 0 0  2.779999999994546 0 0  2.799999999994487 0 0  2.819999999994429 0 0  2.839999999994371 0 0  2.859999999994312 0 0  2.879999999994254 0 0  2.899999999994196 0 0  2.919999999994137 0 0  2.939999999994078 0 0  2.95999999999402 0 0  2.979999999993962 0 0  2.999999999993904 0 0  3.019999999993845 0 0  3.039999999993786 0 0  3.059999999993728 0 0  3.07999999999367 0 0  3.099999999993612 0 0  3.119999999993553 0 0  3.139999999993495 0 0  3.159999999993437 0 0  3.179999999993378 0 0  3.199999999993319 0 0  3.21999999999326 0 0  3.239999999993202 0 0  3.259999999993144 0 0  3.279999999993086 0 0  3.299999999993027 0 0  3.319999999992969 0 0  3.33999999999291 0 0  3.359999999992852 0 0  3.379999999992793 0 0  3.399999999992735 0 0  3.419999999992677 0 0  3.439999999992618 0 0  3.45999999999256 0 0  3.479999999992502 0 0  3.499999999992443 0 0  3.519999999992385 0 0  3.539999999992327 0 0  3.559999999992268 0 0  3.579999999992209 0 0  3.599999999992151 0 0  3.619999999992093 0 0  3.639999999992034 0 0  3.659999999991975 0 0  3.679999999991917 0 0  3.699999999991859 0 0  3.719999999991801 0 0  3.739999999991742 0 0  3.759999999991683 0 0  3.779999999991625 0 0  3.799999999991567 0 0  3.819999999991508 0 0  3.83999999999145 0 0  3.859999999991391 0 0  3.879999999991333 0 0  3.899999999991275 0 0  3.919999999991217 0 0  3.939999999991158 0 0  3.9599999999911 0 0  3.979999999991041 0 0  3.999999999991017 0 0  4.019999999991003 0 0  4.039999999990989 0 0  4.059999999990975 0 0  4.079999999991 0 0  4.099999999991031 0 0  4.119999999991061 0 0  4.139999999991091 0 0  4.159999999991122 0 0  4.179999999991153 0 0  4.199999999991183 0 0  4.219999999991213 0 0  4.239999999991244 0 0  4.259999999991274 0 0  4.279999999991305 0 0  4.299999999991336 0 0  4.319999999991365 0 0  4.339999999991396 0 0  4.359999999991427 0 0  4.379999999991457 0 0  4.399999999991487 0 0  4.419999999991518 0 0  4.439999999991548 0 0  4.459999999991578 0 0  4.479999999991609 0 0  4.499999999991639 0 0  4.519999999991669 0 0  4.5399999999917 0 0  4.55999999999173 0 0  4.57999999999176 0 0  4.599999999991791 0 0  4.619999999991821 0 0  4.639999999991852 0 0  4.659999999991882 0 0  4.679999999991912 0 0  4.699999999991943 0 0  4.719999999991973 0 0  4.739999999992004 0 0  4.759999999992035 0 0  4.779999999992064 0 0  4.799999999992095 0 0  4.819999999992126 0 0  4.839999999992156 0 0  4.859999999992187 0 0  4.879999999992217 0 0  4.899999999992247 0 0  4.919999999992277 0 0  4.939999999992308 0 0  4.959999999992339 0 0  4.979999999992369 0 0  4.999999999992399 0 0  5.01999999999243 0 0  5.03999999999246 0 0  5.05999999999249 0 0  5.079999999992522 0 0  5.099999999992551 0 0  5.119999999992581 0 0  5.139999999992613 0 0  5.159999999992642 0 0  5.179999999992674 0 0  5.199999999992704 0 0  5.219999999992734 0 0  5.239999999992765 0 0  5.259999999992795 0 0  5.279999999992825 0 0  5.299999999992856 0 0  5.319999999992886 0 0  5.339999999992918 0 0  5.359999999992947 0 0  5.379999999992977 0 0  5.399999999993009 0 0  5.419999999993038 0 0  5.439999999993069 0 0  5.4599999999931 0 0  5.479999999993129 0 0  5.49999999999316 0 0  5.519999999993191 0 0  5.539999999993221 0 0  5.55999999999325 0 0  5.57999999999328 0 0  5.599999999993312 0 0  5.619999999993341 0 0  5.639999999993373 0 0  5.659999999993403 0 0  5.679999999993433 0 0  5.699999999993464 0 0  5.719999999993494 0 0  5.739999999993525 0 0  5.759999999993555 0 0  5.779999999993585 0 0  5.799999999993616 0 0  5.819999999993646 0 0  5.839999999993676 0 0  5.859999999993707 0 0  5.879999999993737 0 0  5.899999999993768 0 0  5.919999999993798 0 0  5.939999999993828 0 0  5.959999999993859 0 0  5.979999999993889 0 0  5.99999999999392 0 0  6.01999999999395 0 0  6.03999999999398 0 0  6.059999999994012 0 0  6.079999999994041 0 0  6.099999999994072 0 0  6.119999999994103 0 0  6.139999999994132 0 0  6.159999999994163 0 0  6.179999999994194 0 0  6.199999999994224 0 0  6.219999999994254 0 0  6.239999999994285 0 0  6.259999999994315 0 0  6.279999999994345 0 0  6.299999999994376 0 0  6.319999999994407 0 0  6.339999999994436 0 0  6.359999999994468 0 0  6.379999999994498 0 0  6.399999999994527 0 0  6.419999999994558 0 0  6.439999999994588 0 0  6.459999999994618 0 0  6.479999999994649 0 0  6.499999999994679 0 0  6.51999999999471 0 0  6.53999999999474 0 0  6.559999999994771 0 0  6.579999999994801 0 0  6.599999999994831 0 0  6.619999999994862 0 0  6.639999999994892 0 0  6.659999999994923 0 0  6.679999999994953 0 0  6.699999999994983 0 0  6.719999999995014 0 0  6.739999999995044 0 0  6.759999999995074 0 0  6.779999999995105 0 0  6.799999999995135 0 0  6.819999999995167 0 0  6.839999999995197 0 0  6.859999999995226 0 0  6.879999999995258 0 0  6.899999999995288 0 0  6.919999999995319 0 0  6.939999999995349 0 0  6.959999999995379 0 0  6.97999999999541 0 0  6.99999999999544 0 0  7.019999999995471 0 0  7.039999999995501 0 0  7.059999999995531 0 0  7.079999999995562 0 0  7.099999999995593 0 0  7.119999999995623 0 0  7.139999999995653 0 0  7.159999999995684 0 0  7.179999999995714 0 0  7.199999999995744 0 0  7.219999999995776 0 0  7.239999999995805 0 0  7.259999999995834 0 0  7.279999999995866 0 0  7.299999999995896 0 0  7.319999999995925 0 0  7.339999999995957 0 0  7.359999999995987 0 0  7.379999999996017 0 0  7.399999999996048 0 0  7.419999999996078 0 0  7.439999999996108 0 0  7.459999999996139 0 0 
[...]
<PointData  Vectors="f_27"> 
<DataArray  type="Float64"  Name="f_27"  NumberOfComponents="3" format="ascii">-2.1290319753346569e-21 -1.5683312319091906e-21 0.0000000000000000e+00  0.0000000000000000e+00 0.0000000000000000e+00 0.0000000000000000e+00  5.3190416705427854e-04 -8.1543569524477975e-03 0.0000000000000000e+00  -5.3991903916238170e-04 -8.1543492663612872e-03 0.0000000000000000e+00  0.0000000000000000e+00 0.0000000000000000e+00 0.0000000000000000e+00  0.0000000000000000e+00 0.0000000000000000e+00 0.0000000000000000e+00  0.0000000000000000e+00 0.0000000000000000e+00 0.0000000000000000e+00  0.0000000000000000e+00 0.0000000000000000e+00 0.0000000000000000e+00  0.0000000000000000e+00 0.0000000000000000e+00 0.0000000000000000e+00  0.0000000000000000e+00 0.0000000000000000e+00 0.0000000000000000e+00  0.0000000000000000e+00 0.0000000000000000e+00 0.0000000000000000e+00  0.0000000000000000e+00 0.0000000000000000e+00 0.0000000000000000e+00  0.0000000000000000e+00 0.0000000000000000e+00 0.0000000000000000e+00  0.0000000000000000e+00 0.0000000000000000e+00 0.0000000000000000e+00  0.0000000000000000e+00 0.0000000000000000e+00 0.0000000000000000e+00  0.0000000000000000e+00 0.0000000000000000e+00 0.0000000000000000e+00  0.0000000000000000e+00 0.0000000000000000e+00 0.0000000000000000e+00  0.0000000000000000e+00 0.0000000000000000e+00 0.0000000000000000e+00  0.0000000000000000e+00 0.0000000000000000e+00 0.0000000000000000e+00  0.0000000000000000e+00 0.0000000000000000e+00 0.0000000000000000e+00  0.0000000000000000e+00 0.0000000000000000e+00 0.0000000000000000e+00  0.0000000000000000e+00 0.0000000000000000e+00 0.0000000000000000e+00  0.0000000000000000e+00 0.0000000000000000e+00 0.0000000000000000e+00  0.0000000000000000e+00 0.0000000000000000e+00 0.0000000000000000e+00  0.0000000000000000e+00 0.0000000000000000e+00 0.0000000000000000e+00  0.0000000000000000e+00 0.0000000000000000e+00 0.0000000000000000e+00  0.0000000000000000e+00 0.0000000000000000e+00 0.0000000000000000e+00  0.0000000000000000e+00 0.0000000000000000e+00 0.0000000000000000e+00  0.0000000000000000e+00 0.0000000000000000e+00 0.0000000000000000e+00  0.0000000000000000e+00 0.0000000000000000e+00 0.0000000000000000e+00  0.0000000000000000e+00 0.0000000000000000e+00 0.0000000000000000e+00  0.0000000000000000e+00 0.0000000000000000e+00 0.0000000000000000e+00  0.0000000000000000e+00 0.0000000000000000e+00 0.0000000000000000e+00  0.0000000000000000e+00 0.0000000000000000e+00 0.0000000000000000e+00  0.0000000000000000e+00 0.0000000000000000e+00 0.0000000000000000e+00  0.0000000000000000e+00 0.0000000000000000e+00 0.0000000000000000e+00  0.0000000000000000e+00 0.0000000000000000e+00 0.0000000000000000e+00  0.0000000000000000e+00 0.0000000000000000e+00 0.0000000000000000e+00  0.0000000000000000e+00 0.0000000000000000e+00 0.0000000000000000e+00  0.0000000000000000e+00 0.0000000000000000e+00 0.0000000000000000e+00  0.0000000000000000e+00 0.0000000000000000e+00 0.0000000000000000e+00  0.0000000000000000e+00 0.0000000000000000e+00 0.0000000000000000e+00  0.0000000000000000e+00 0.0000000000000000e+00 0.0000000000000000e+00  0.0000000000000000e+00 0.0000000000000000e+00 0.0000000000000000e+00  0.0000000000000000e+00 0.0000000000000000e+00 0.0000000000000000e+00  0.0000000000000000e+00 0.0000000000000000e+00 0.0000000000000000e+00  0.0000000000000000e+00 0.0000000000000000e+00 0.0000000000000000e+00  0.0000000000000000e+00 0.0000000000000000e+00 0.0000000000000000e+00  0.0000000000000000e+00 0.0000000000000000e+00 0.0000000000000000e+00  0.0000000000000000e+00 0.0000000000000000e+00 0.0000000000000000e+00  0.0000000000000000e+00 0.0000000000000000e+00 0.0000000000000000e+00  0.0000000000000000e+00 0.0000000000000000e+00 0.0000000000000000e+00  0.0000000000000000e+00 0.0000000000000000e+00 0.0000000000000000e+00  -3.0682584354490982e-06 -2.2602035045186471e-06 0.0000000000000000e+00  -6.1365168708981811e-06 -4.5204070090372833e-06 0.0000000000000000e+00  -9.2047753063472720e-06 -6.7806105135559258e-06 0.0000000000000000e+00  -1.2273033741796389e-05 -9.0408140180745869e-06 0.0000000000000000e+00  -1.5341292177245652e-05 -1.1301017522593356e-05 0.0000000000000000e+00  -1.8409550612694917e-05 -1.3561221027112126e-05 0.0000000000000000e+00  -2.1477809048144175e-05 -1.5821424531630888e-05 0.0000000000000000e+00  -2.4546067483593453e-05 -1.8081628036149668e-05 0.0000000000000000e+00  -2.7614325919042697e-05 -2.0341831540668425e-05 0.0000000000000000e+00  -3.0682584354491955e-05 -2.2602035045187189e-05 0.0000000000000000e+00  -3.3750842789941223e-05 -2.4862238549705959e-05 0.0000000000000000e+00  -3.6819101225390376e-05 -2.7122442054224648e-05 0.0000000000000000e+00  -3.9887359660839196e-05 -2.9382645558743094e-05 0.0000000000000000e+00  -4.2955618096288037e-05 -3.1642849063261552e-05 0.0000000000000000e+00  -4.6023876531736892e-05 -3.3903052567780014e-05 0.0000000000000000e+00  -4.9092134967185408e-05 -3.6163256072298232e-05 0.0000000000000000e+00  -5.2160393402633388e-05 -3.8423459576816058e-05 0.0000000000000000e+00  -5.5228651838081355e-05 -4.0683663081333876e-05 0.0000000000000000e+00  -5.8296910273529370e-05 -4.2943866585851728e-05 0.0000000000000000e+00  -6.1365168708977133e-05 -4.5204070090369384e-05 0.0000000000000000e+00  -6.4433427144424687e-05 -4.7464273594886897e-05 0.0000000000000000e+00  -6.7501685579872268e-05 -4.9724477099404424e-05 0.0000000000000000e+00  -7.0569944015319808e-05 -5.1984680603921931e-05 0.0000000000000000e+00  -7.3638202450767836e-05 -5.4244884108439783e-05 0.0000000000000000e+00  -7.6706460886216270e-05 -5.6505087612957967e-05 0.0000000000000000e+00  -7.9447113977616896e-05 -6.1378531218633881e-05 0.0000000000000000e+00  -8.2187767069017521e-05 -6.6251974824309843e-05 0.0000000000000000e+00  -8.4928420160418648e-05 -7.1125418429986685e-05 0.0000000000000000e+00  -8.7669073251820032e-05 -7.5998862035663961e-05 0.0000000000000000e+00  -9.0409726343221417e-05 -8.0872305641341237e-05 0.0000000000000000e+00  -9.3150379434622815e-05 -8.5745749247018540e-05 0.0000000000000000e+00  -9.5891032526024186e-05 -9.0619192852695843e-05 0.0000000000000000e+00  -9.8631685617425584e-05 -9.5492636458373160e-05 0.0000000000000000e+00  -1.0137233870882697e-04 -1.0036608006405042e-04 0.0000000000000000e+00  -1.0411299180022833e-04 -1.0523952366972770e-04 0.0000000000000000e+00  -1.0685364489162974e-04 -1.1011296727540501e-04 0.0000000000000000e+00  -1.0959429798303109e-04 -1.1498641088108225e-04 0.0000000000000000e+00  -1.1233495107443251e-04 -1.1985985448675961e-04 0.0000000000000000e+00  -1.1507560416583386e-04 -1.2473329809243688e-04 0.0000000000000000e+00  -1.1781625725723526e-04 -1.2960674169811416e-04 0.0000000000000000e+00  -1.2055691034863665e-04 -1.3448018530379146e-04 0.0000000000000000e+00  -1.2329756344003800e-04 -1.3935362890946874e-04 0.0000000000000000e+00  -1.2603821653143943e-04 -1.4422707251514607e-04 0.0000000000000000e+00  -1.2877886962284080e-04 -1.4910051612082334e-04 0.0000000000000000e+00  -1.3151952271424222e-04 -1.5397395972650068e-04 0.0000000000000000e+00  -1.3426017580564357e-04 -1.5884740333217792e-04 0.0000000000000000e+00  -1.3700082889704494e-04 -1.6372084693785523e-04 0.0000000000000000e+00  -1.3974148198844636e-04 -1.6859429054353253e-04 0.0000000000000000e+00  -1.4248213507984773e-04 -1.7346773414920983e-04 0.0000000000000000e+00  -1.4522278817124910e-04 -1.7834117775488714e-04 0.0000000000000000e+00  -1.4769218225747335e-04 -1.8577707282892435e-04 0.0000000000000000e+00  -1.5016157634369759e-04 -1.9321296790296156e-04 0.0000000000000000e+00  -1.5263097042992184e-04 -2.0064886297699877e-04 0.0000000000000000e+00  -1.5510036451614608e-04 -2.0808475805103599e-04 0.0000000000000000e+00  -1.5756975860237030e-04 -2.1552065312507317e-04 0.0000000000000000e+00  -1.6003915268859455e-04 -2.2295654819911041e-04 0.0000000000000000e+00  -1.6250854677481879e-04 -2.3039244327314762e-04 0.0000000000000000e+00  -1.6497794086104298e-04 -2.3782833834718481e-04 0.0000000000000000e+00  -1.6744733494726671e-04 -2.4526423342122048e-04 0.0000000000000000e+00  -1.6991672903348947e-04 -2.5270012849525319e-04 0.0000000000000000e+00  -1.7238612311971246e-04 -2.6013602356928672e-04 0.0000000000000000e+00  -1.7485551720593522e-04 -2.6757191864331949e-04 0.0000000000000000e+00  -1.7732491129215672e-04 -2.7500781371734851e-04 0.0000000000000000e+00  -1.7979430537837688e-04 -2.8244370879137342e-04 0.0000000000000000e+00  -1.8226369946459703e-04 -2.8987960386539833e-04 0.0000000000000000e+00  -1.8473309355081707e-04 -2.9731549893942291e-04 0.0000000000000000e+00  -1.8720248763703649e-04 -3.0475139401344559e-04 0.0000000000000000e+00  -1.8967188172325515e-04 -3.1218728908746600e-04 0.0000000000000000e+00  -1.9214127580947395e-04 -3.1962318416148689e-04 0.0000000000000000e+00  -1.9461066989569275e-04 -3.2705907923550779e-04 0.0000000000000000e+00  -1.9708006398191143e-04 -3.3449497430952820e-04 0.0000000000000000e+00  -1.9954945806813026e-04 -3.4193086938354915e-04 0.0000000000000000e+00  -2.0201885215434892e-04 -3.4936676445756955e-04 0.0000000000000000e+00  -2.0448824624056772e-04 -3.5680265953159040e-04 0.0000000000000000e+00  -2.0695764032678651e-04 -3.6423855460561135e-04 0.0000000000000000e+00  -2.0916112723229699e-04 -3.7397774214789110e-04 0.0000000000000000e+00  -2.1136461413780755e-04 -3.8371692969017118e-04 0.0000000000000000e+00  -2.1356810104331805e-04 -3.9345611723245089e-04 0.0000000000000000e+00  -2.1577158794882864e-04 -4.0319530477473108e-04 0.0000000000000000e+00  -2.1797507485433912e-04 -4.1293449231701073e-04 0.0000000000000000e+00  -2.2017856175984970e-04 -4.2267367985929092e-04 0.0000000000000000e+00  -2.2238204866536029e-04 -4.3241286740157111e-04 0.0000000000000000e+00  -2.2458553557087077e-04 -4.4215205494385076e-04 0.0000000000000000e+00  -2.2678902247638135e-04 -4.5189124248613095e-04 0.0000000000000000e+00  -2.2899250938189183e-04 -4.6163043002841065e-04 0.0000000000000000e+00  -2.3119599628740242e-04 -4.7136961757069079e-04 0.0000000000000000e+00  -2.3339948319291289e-04 -4.8110880511297054e-04 0.0000000000000000e+00  -2.3560297009842348e-04 -4.9084799265525073e-04 0.0000000000000000e+00  -2.3780645700393406e-04 -5.0058718019753076e-04 0.0000000000000000e+00  -2.4000994390944454e-04 -5.1032636773981046e-04 0.0000000000000000e+00  -2.4221343081495513e-04 -5.2006555528209060e-04 0.0000000000000000e+00  -2.4441691772046561e-04 -5.2980474282437030e-04 0.0000000000000000e+00  -2.4662040462597619e-04 -5.3954393036665044e-04 0.0000000000000000e+00  -2.4882389153148678e-04 -5.4928311790893069e-04 0.0000000000000000e+00  -2.5102737843699731e-04 -5.5902230545121039e-04 0.0000000000000000e+00  -2.5323086534250784e-04 -5.6876149299349063e-04 0.0000000000000000e+00  -2.5543435224801832e-04 -5.7850068053577023e-04 0.0000000000000000e+00  -2.5763783915352890e-04 -5.8823986807805036e-04 0.0000000000000000e+00  -2.5984132605903944e-04 -5.9797905562033007e-04 0.0000000000000000e+00  -2.6204481296454997e-04 -6.0771824316261020e-04 0.0000000000000000e+00  -2.6399282913852585e-04 -6.1949737869988351e-04 0.0000000000000000e+00  -2.6594084531250157e-04 -6.3127651423715606e-04 0.0000000000000000e+00  -2.6788886148647746e-04 -6.4305564977442926e-04 0.0000000000000000e+00  -2.6983687766045323e-04 -6.5483478531170203e-04 0.0000000000000000e+00  -2.7178489383442917e-04 -6.6661392084897545e-04 0.0000000000000000e+00  -2.7373291000840500e-04 -6.7839305638624865e-04 0.0000000000000000e+00  -2.7568092618238078e-04 -6.9017219192352131e-04 0.0000000000000000e+00  -2.7762894235635661e-04 -7.0195132746079451e-04 0.0000000000000000e+00  -2.7957695853033260e-04 -7.1373046299806815e-04 0.0000000000000000e+00  -2.8152497470430827e-04 -7.2550959853534070e-04 0.0000000000000000e+00  -2.8347299087828405e-04 -7.3728873407261336e-04 0.0000000000000000e+00  -2.8542100705225998e-04 -7.4906786960988667e-04 0.0000000000000000e+00  -2.8736902322623581e-04 -7.6084700514716008e-04 0.0000000000000000e+00  -2.8931703940021159e-04 -7.7262614068443264e-04 0.0000000000000000e+00  -2.9126505557418747e-04 -7.8440527622170584e-04 0.0000000000000000e+00  -2.9321307174816325e-04 -7.9618441175897860e-04 0.0000000000000000e+00  -2.9516108792213913e-04 -8.0796354729625213e-04 0.0000000000000000e+00  -2.9710910409611502e-04 -8.1974268283352522e-04 0.0000000000000000e+00  -2.9905712027009080e-04 -8.3152181837079799e-04 0.0000000000000000e+00  -3.0100513644406668e-04 -8.4330095390807119e-04 0.0000000000000000e+00  -3.0295315261804256e-04 -8.5508008944534472e-04 0.0000000000000000e+00  -3.0490116879201834e-04 -8.6685922498261738e-04 0.0000000000000000e+00  -3.0684918496599406e-04 -8.7863836051988993e-04 0.0000000000000000e+00  -3.0879720113997000e-04 -8.9041749605716324e-04 0.0000000000000000e+00  -3.1074521731394588e-04 -9.0219663159443666e-04 0.0000000000000000e+00  -3.1245180304626734e-04 -9.1576632000204086e-04 0.0000000000000000e+00  -3.1415838877858884e-04 -9.2933600840964452e-04 0.0000000000000000e+00  -3.1586497451091024e-04 -9.4290569681724807e-04 0.0000000000000000e+00  -3.1757156024323180e-04 -9.5647538522485248e-04 0.0000000000000000e+00  -3.1927814597555330e-04 -9.7004507363245679e-04 0.0000000000000000e+00  -3.2098473170787475e-04 -9.8361476204006045e-04 0.0000000000000000e+00  -3.2269131744019626e-04 -9.9718445044766476e-04 0.0000000000000000e+00  -3.2439790317251782e-04 -1.0107541388552691e-03 0.0000000000000000e+00  -3.2610448890483927e-04 -1.0243238272628725e-03 0.0000000000000000e+00  -3.2781107463716072e-04 -1.0378935156704770e-03 0.0000000000000000e+00  -3.2951766036948228e-04 -1.0514632040780814e-03 0.0000000000000000e+00  -3.3122424610180373e-04 -1.0650328924856852e-03 0.0000000000000000e+00  -3.3293083183412518e-04 -1.0786025808932891e-03 0.0000000000000000e+00  -3.3463741756644669e-04 -1.0921722693008928e-03 0.0000000000000000e+00  -3.3634400329876808e-04 -1.1057419577084964e-03 0.0000000000000000e+00  -3.3805058903108964e-04 -1.1193116461161009e-03 0.0000000000000000e+00  -3.3975717476341115e-04 -1.1328813345237053e-03 0.0000000000000000e+00  -3.4146376049573260e-04 -1.1464510229313087e-03 0.0000000000000000e+00  -3.4317034622805410e-04 -1.1600207113389130e-03 0.0000000000000000e+00  -3.4487693196037566e-04 -1.1735903997465175e-03 0.0000000000000000e+00  -3.4658351769269706e-04 -1.1871600881541210e-03 0.0000000000000000e+00  -3.4829010342501851e-04 -1.2007297765617246e-03 0.0000000000000000e+00  -3.4999668915734001e-04 -1.2142994649693289e-03 0.0000000000000000e+00  -3.5170327488966152e-04 -1.2278691533769335e-03 0.0000000000000000e+00  -3.5340986062198313e-04 -1.2414388417845380e-03 0.0000000000000000e+00  -3.5489042997077802e-04 -1.2565655634377919e-03 0.0000000000000000e+00  -3.5637099931957290e-04 -1.2716922850910463e-03 0.0000000000000000e+00  -3.5785156866836794e-04 -1.2868190067443013e-03 0.0000000000000000e+00  -3.5933213801716293e-04 -1.3019457283975563e-03 0.0000000000000000e+00  -3.6081270736595787e-04 -1.3170724500508111e-03 0.0000000000000000e+00  -3.6229327671475275e-04 -1.3321991717040651e-03 0.0000000000000000e+00  -3.6377384606354785e-04 -1.3473258933573205e-03 0.0000000000000000e+00  -3.6525441541234273e-04 -1.3624526150105751e-03 0.0000000000000000e+00  -3.6673498476113761e-04 -1.3775793366638293e-03 0.0000000000000000e+00  -3.6821555410993255e-04 -1.3927060583170834e-03 0.0000000000000000e+00  -3.6969612345872749e-04 -1.4078327799703376e-03 0.0000000000000000e+00  -3.7117669280752248e-04 -1.4229595016235928e-03 0.0000000000000000e+00  -3.7265726215631747e-04 -1.4380862232768476e-03 0.0000000000000000e+00  -3.7413783150511240e-04 -1.4532129449301022e-03 0.0000000000000000e+00  -3.7561840085390734e-04 -1.4683396665833570e-03 0.0000000000000000e+00  -3.7709897020270228e-04 -1.4834663882366116e-03 0.0000000000000000e+00  -3.7857953955149721e-04 -1.4985931098898658e-03 0.0000000000000000e+00  -3.8006010890029215e-04 -1.5137198315431206e-03 0.0000000000000000e+00  -3.8154067824908714e-04 -1.5288465531963754e-03 0.0000000000000000e+00  -3.8302124759788213e-04 -1.5439732748496302e-03 0.0000000000000000e+00  -3.8450181694667712e-04 -1.5590999965028850e-03 0.0000000000000000e+00  -3.8598238629547195e-04 -1.5742267181561391e-03 0.0000000000000000e+00  -3.8746295564426699e-04 -1.5893534398093941e-03 0.0000000000000000e+00  -3.8894352499306193e-04 -1.6044801614626489e-03 0.0000000000000000e+00  -3.9042409434185681e-04 -1.6196068831159029e-03 0.0000000000000000e+00  -3.9169452780105454e-04 -1.6360732037351399e-03 0.0000000000000000e+00  -3.9296496126025221e-04 -1.6525395243543763e-03 0.0000000000000000e+00  -3.9423539471944983e-04 -1.6690058449736122e-03 0.0000000000000000e+00  -3.9550582817864745e-04 -1.6854721655928480e-03 0.0000000000000000e+00  -3.9677626163784518e-04 -1.7019384862120845e-03 0.0000000000000000e+00  -3.9804669509704290e-04 -1.7184048068313216e-03 0.0000000000000000e+00  -3.9931712855624047e-04 -1.7348711274505573e-03 0.0000000000000000e+00  -4.0058756201543814e-04 -1.7513374480697932e-03 0.0000000000000000e+00  -4.0185799547463581e-04 -1.7678037686890296e-03 0.0000000000000000e+00  -4.0312842893383354e-04 -1.7842700893082669e-03 0.0000000000000000e+00  -4.0439886239303116e-04 -1.8007364099275032e-03 0.0000000000000000e+00  -4.0566929585222889e-04 -1.8172027305467394e-03 0.0000000000000000e+00  -4.0693972931142640e-04 -1.8336690511659747e-03 0.0000000000000000e+00  -4.0821016277062412e-04 -1.8501353717852117e-03 0.0000000000000000e+00  -4.0948059622982185e-04 -1.8666016924044485e-03 0.0000000000000000e+00  -4.1075102968901947e-04 -1.8830680130236840e-03 0.0000000000000000e+00  -4.1202146314821714e-04 -1.8995343336429208e-03 0.0000000000000000e+00  -4.1329189660741482e-04 -1.9160006542621570e-03 0.0000000000000000e+00  -4.1456233006661254e-04 -1.9324669748813936e-03 0.0000000000000000e+00  -4.1583276352581022e-04 -1.9489332955006304e-03 0.0000000000000000e+00  -4.1710319698500789e-04 -1.9653996161198674e-03 0.0000000000000000e+00  -4.1837363044420551e-04 -1.9818659367391027e-03 0.0000000000000000e+00  -4.1964406390340324e-04 -1.9983322573583397e-03 0.0000000000000000e+00  -4.2091449736260085e-04 -2.0147985779775755e-03 0.0000000000000000e+00  -4.2218493082180070e-04 -2.0312648985968402e-03 0.0000000000000000e+00  -4.2326126168780291e-04 -2.0488694896901305e-03 0.0000000000000000e+00  -4.2433759255380507e-04 -2.0664740807834190e-03 0.0000000000000000e+00  -4.2541392341980734e-04 -2.0840786718767088e-03 0.0000000000000000e+00  -4.2649025428581166e-04 -2.1016832629700329e-03 0.0000000000000000e+00  -4.2756658515181632e-04 -2.1192878540633618e-03 0.0000000000000000e+00  -4.2864291601782086e-04 -2.1368924451566898e-03 0.0000000000000000e+00  -4.2971924688382541e-04 -2.1544970362500186e-03 0.0000000000000000e+00  -4.3079557774983006e-04 -2.1721016273433470e-03 0.0000000000000000e+00  -4.3187190861583471e-04 -2.1897062184366763e-03 0.0000000000000000e+00  -4.3294823948183926e-04 -2.2073108095300048e-03 0.0000000000000000e+00  -4.3402457034784380e-04 -2.2249154006233323e-03 0.0000000000000000e+00  -4.3510090121384845e-04 -2.2425199917166612e-03 0.0000000000000000e+00  -4.3617723207985300e-04 -2.2601245828099900e-03 0.0000000000000000e+00  -4.3725356294585765e-04 -2.2777291739033189e-03 0.0000000000000000e+00  -4.3832989381186230e-04 -2.2953337649966473e-03 0.0000000000000000e+00  -4.3940622467786685e-04 -2.3129383560899757e-03 0.0000000000000000e+00  -4.4048255554387139e-04 -2.3305429471833041e-03 0.0000000000000000e+00  -4.4155888640987604e-04 -2.3481475382766330e-03 0.0000000000000000e+00  -4.4263521727588064e-04 -2.3657521293699618e-03 0.0000000000000000e+00  -4.4371154814188524e-04 -2.3833567204632898e-03 0.0000000000000000e+00  -4.4478787900788990e-04 -2.4009613115566187e-03 0.0000000000000000e+00  -4.4586420987389439e-04 -2.4185659026499467e-03 0.0000000000000000e+00  -4.4694054073989898e-04 -2.4361704937432751e-03 0.0000000000000000e+00  -4.4801687160590358e-04 -2.4537750848366039e-03 0.0000000000000000e+00  -4.4909320247190813e-04 -2.4713796759299319e-03 0