<?xml version="1.0"?>
<VTKFile type="UnstructuredGrid"  version="0.1"  >
<UnstructuredGrid>
<Piece  NumberOfPoints="36" NumberOfCells="44">
<Points>
<DataArray  type="Float64"  NumberOfComponents="3"  format="ascii">-0.075 0 0  -0.09 0 0  0 0.075 0  0 0.09 0  -0.08249999999998102 0 0  0 0.08249999999998102 0  -0.07407662554001279 0.01173258490720285 0  -0.07132923870125214 0.02317627464239655 0  -0.06682548926972362 0.03404928756761369 0  -0.06067627450449974 0.04408389402326653 0  -0.05303300847203277 0.05303300870594936 0  -0.04408389381634161 0.0606762746548395 0  -0.03404928738339567 0.0668254893635874 0  -0.02317627450810769 0.07132923874488524 0  -0.01173258484250508 0.07407662555025991 0  -0.08923003752000429 0.01174735732744269 0  -0.08693332434967585 0.02329371412020956 0  -0.08314915788561159 0.03444150901040243 0  -0.0779422862707224 0.04500000012103059 0  -0.07140180051005575 0.05478852876216149 0  -0.06363961015210862 0.0636396104614699 0  -0.05478852847739261 0.07140180072856661 0  -0.04499999987153309 0.07794228641476986 0  -0.03444150881112199 0.08314915796815625 0  -0.02329371399060734 0.08693332438440267 0  -0.01174735726437543 0.08923003752830727 0  -0.07938467117284663 0.007370874471602918 0  -0.007370874430830843 0.07938467117884879 0  -0.05324844288167829 0.06218364942181367 0  -0.06218588324510357 0.05324401893672856 0  -0.04253794025044331 0.06941560981341689 0  -0.01806882575247421 0.07933616443320529 0  -0.07933616440192034 0.01806882585269108 0  -0.06941560967220417 0.04253794045833013 0  -0.03109214947841888 0.0750630892125279 0  -0.07506308912773038 0.03109214964729191 0  </DataArray>
</Points>
<Cells>
<DataArray  type="UInt32"  Name="connectivity"  format="ascii">4 15 26  5 25 27  25 27 31  15 26 32  0 6 26  2 14 27  22 30 34  24 31 34  18 33 35  16 32 35  23 24 34  22 23 34  17 18 35  16 17 35  6 26 32  14 27 31  21 28 30  19 29 33  20 28 29  21 22 30  24 25 31  18 19 33  15 16 32  10 28 29  9 29 33  11 28 30  12 30 34  7 32 35  8 33 35  13 31 34  19 20 29  20 21 28  0 4 26  2 5 27  9 10 29  10 11 28  11 12 30  13 14 31  6 7 32  8 9 33  12 13 34  7 8 35  1 4 15  3 5 25  </DataArray>
<DataArray  type="UInt32"  Name="offsets"  format="ascii">3 6 9 12 15 18 21 24 27 30 33 36 39 42 45 48 51 54 57 60 63 66 69 72 75 78 81 84 87 90 93 96 99 102 105 108 111 114 117 120 123 126 129 132 </DataArray>
<DataArray  type="UInt8"  Name="types"  format="ascii">5 5 5 5 5 5 5 5 5 5 5 5 5 5 5 5 5 5 5 5 5 5 5 5 5 5 5 5 5 5 5 5 5 5 5 5 5 5 5 5 5 5 5 5 </DataArray>
</Cells>
<PointData  Vectors="f_14"> 
<DataArray  type="Float64"  Name="f_14"  NumberOfComponents="3" format="ascii">-6.0514019325287847e-05 0.0000000000000000e+00 0.0000000000000000e+00  -5.5317894218673039e-05 0.0000000000000000e+00 0.0000000000000000e+00  0.0000000000000000e+00 6.0513556493386408e-05 0.0000000000000000e+00  0.0000000000000000e+00 5.5317431412251205e-05 0.0000000000000000e+00  -5.7399125528383909e-05 0.0000000000000000e+00 0.0000000000000000e+00  0.0000000000000000e+00 5.7398662727448503e-05 0.0000000000000000e+00  -5.9432063554500770e-05 9.5294912651354981e-06 0.0000000000000000e+00  -5.6953580705562136e-05 1.8574160483438274e-05 0.0000000000000000e+00  -5.3487628686627075e-05 2.7296563813128147e-05 0.0000000000000000e+00  -4.8589225358203404e-05 3.5300181387325960e-05 0.0000000000000000e+00  -4.2467242526058628e-05 4.2466989448476395e-05 0.0000000000000000e+00  -3.5300007776517011e-05 4.8588374460549811e-05 0.0000000000000000e+00  -2.7296568223949424e-05 5.3487161614359053e-05 0.0000000000000000e+00  -1.8574160972442975e-05 5.6953117560344897e-05 0.0000000000000000e+00  -9.5294913142130614e-06 5.9431600769101988e-05 0.0000000000000000e+00  -5.4339741399548609e-05 7.1511530881797356e-06 0.0000000000000000e+00  -5.2834888774045614e-05 1.4243569196570523e-05 0.0000000000000000e+00  -5.0921846178051472e-05 2.1092293356355427e-05 0.0000000000000000e+00  -4.7528180160936743e-05 2.7369687123726818e-05 0.0000000000000000e+00  -4.3442313361009391e-05 3.3351103460036558e-05 0.0000000000000000e+00  -3.8718197087149692e-05 3.8718235728748097e-05 0.0000000000000000e+00  -3.3350787198074681e-05 4.3441622023945324e-05 0.0000000000000000e+00  -2.7369663008477003e-05 4.7527687027836660e-05 0.0000000000000000e+00  -2.1092293972030167e-05 5.0921381949252387e-05 0.0000000000000000e+00  -1.4243569262448441e-05 5.2834426403195294e-05 0.0000000000000000e+00  -7.1511530825357171e-06 5.4339278638896064e-05 0.0000000000000000e+00  -5.7950460414701670e-05 5.4643405156283181e-06 0.0000000000000000e+00  -5.4643404491615021e-06 5.7949997608941660e-05 0.0000000000000000e+00  -3.7265088035954689e-05 4.3561396360718029e-05 0.0000000000000000e+00  -4.3564391817140153e-05 3.7262740628518397e-05 0.0000000000000000e+00  -3.0023670383653280e-05 4.9081374889388690e-05 0.0000000000000000e+00  -1.2832096553891730e-05 5.6024627912156160e-05 0.0000000000000000e+00  -5.6025090648836873e-05 1.2832096805921964e-05 0.0000000000000000e+00  -4.9081895220111311e-05 3.0023702235772411e-05 0.0000000000000000e+00  -2.2024393428681782e-05 5.3139174286469562e-05 0.0000000000000000e+00  -5.3139636595767915e-05 2.2024395244687515e-05 0.0000000000000000e+00  </DataArray> 
</PointData> 
</Piece>
</UnstructuredGrid>
</VTKFile>